Nd    ONCVPSP  r_core=  2.11  1.92  1.92  2.52
     60.0000     11.0000      160705    zatom,zion,pspd
     8      11   3     4   600     0    pspcod,pspxc,lmax,lloc,mmax,r2well
  5.99000000  0.25000000  0.00000000    rchrg fchrg qchrg
     2     2     2     1     0    nproj
     0                 extension_switch
   0                         5.9162175664027D+00  7.1256962248953D-01
     1  0.0000000000000D+00 -9.3685004198818D-11  2.5485187571395D-10
     2  1.0000000000000D-02  4.6097044918833D-02 -1.6943247906908D-02
     3  2.0000000000000D-02  9.2096977147290D-02 -3.3722880149573D-02
     4  3.0000000000000D-02  1.3790318255104D-01 -5.0176502491482D-02
     5  4.0000000000000D-02  1.8342004072953D-01 -6.6144154566886D-02
     6  5.0000000000000D-02  2.2855341346085D-01 -8.1469504419265D-02
     7  6.0000000000000D-02  2.7321112310689D-01 -9.6001016344714D-02
     8  7.0000000000000D-02  3.1730341774247D-01 -1.0959308344240D-01
     9  8.0000000000000D-02  3.6074341986620D-01 -1.2210711652917D-01
    10  9.0000000000000D-02  4.0344755566630D-01 -1.3341258139044D-01
    11  1.0000000000000D-01  4.4533596195201D-01 -1.4338797671252D-01
    12  1.1000000000000D-01  4.8633286801870D-01 -1.5192174547017D-01
    13  1.2000000000000D-01  5.2636694989149D-01 -1.5891311302333D-01
    14  1.3000000000000D-01  5.6537165458698D-01 -1.6427284570687D-01
    15  1.4000000000000D-01  6.0328549224410D-01 -1.6792392427116D-01
    16  1.5000000000000D-01  6.4005229420131D-01 -1.6980212714661D-01
    17  1.6000000000000D-01  6.7562143533760D-01 -1.6985651915685D-01
    18  1.7000000000000D-01  7.0994801924596D-01 -1.6804984198863D-01
    19  1.8000000000000D-01  7.4299302507026D-01 -1.6435880343664D-01
    20  1.9000000000000D-01  7.7472341510565D-01 -1.5877426317338D-01
    21  2.0000000000000D-01  8.0511220253910D-01 -1.5130131354269D-01
    22  2.1000000000000D-01  8.3413847898664D-01 -1.4195925463509D-01
    23  2.2000000000000D-01  8.6178740176676D-01 -1.3078146366835D-01
    24  2.3000000000000D-01  8.8805014113188D-01 -1.1781515946239D-01
    25  2.4000000000000D-01  9.1292378796135D-01 -1.0312106355762D-01
    26  2.5000000000000D-01  9.3641122269660D-01 -8.6772960275967D-02
    27  2.6000000000000D-01  9.5852094657101D-01 -6.8857158756882D-02
    28  2.7000000000000D-01  9.7926687645115D-01 -4.9471860713647D-02
    29  2.8000000000000D-01  9.9866810486119D-01 -2.8726438340966D-02
    30  2.9000000000000D-01  1.0167486270055D+00 -6.7406274601248D-03
    31  3.0000000000000D-01  1.0335370368354D+00  1.6356358393193D-02
    32  3.1000000000000D-01  1.0490661944227D+00  4.0426786654089D-02
    33  3.2000000000000D-01  1.0633728671009D+00  6.5325430368123D-02
    34  3.3000000000000D-01  1.0764973470216D+00  9.0900651480039D-02
    35  3.4000000000000D-01  1.0884830479325D+00  1.1699553503171D-01
    36  3.5000000000000D-01  1.0993760841326D+00  1.4344906614871D-01
    37  3.6000000000000D-01  1.1092248346807D+00  1.7009734137225D-01
    38  3.7000000000000D-01  1.1180794960347D+00  1.9677480562972D-01
    39  3.8000000000000D-01  1.1259916263827D+00  2.2331550593505D-01
    40  3.9000000000000D-01  1.1330136849775D+00  2.4955435277114D-01
    41  4.0000000000000D-01  1.1391985698237D+00  2.7532838003106D-01
    42  4.1000000000000D-01  1.1445991570764D+00  3.0047799438424D-01
    43  4.2000000000000D-01  1.1492678454932D+00  3.2484820498669D-01
    44  4.3000000000000D-01  1.1532561092483D+00  3.4828982457262D-01
    45  4.4000000000000D-01  1.1566140623548D+00  3.7066063314491D-01
    46  4.5000000000000D-01  1.1593900378583D+00  3.9182649572502D-01
    47  4.6000000000000D-01  1.1616301848625D+00  4.1166242592594D-01
    48  4.7000000000000D-01  1.1633780863167D+00  4.3005358747261D-01
    49  4.8000000000000D-01  1.1646744003525D+00  4.4689622621167D-01
    50  4.9000000000000D-01  1.1655565277887D+00  4.6209852562137D-01
    51  5.0000000000000D-01  1.1660583082381D+00  4.7558137935220D-01
    52  5.1000000000000D-01  1.1662097470506D+00  4.8727907489329D-01
    53  5.2000000000000D-01  1.1660367751078D+00  4.9713988306707D-01
    54  5.3000000000000D-01  1.1655610432547D+00  5.0512654869994D-01
    55  5.4000000000000D-01  1.1647997529087D+00  5.1121667849378D-01
    56  5.5000000000000D-01  1.1637655241337D+00  5.1540302283198D-01
    57  5.6000000000000D-01  1.1624663022012D+00  5.1769364898317D-01
    58  5.7000000000000D-01  1.1609053033924D+00  5.1811200391642D-01
    59  5.8000000000000D-01  1.1590810005151D+00  5.1669686570550D-01
    60  5.9000000000000D-01  1.1569871483348D+00  5.1350218327104D-01
    61  6.0000000000000D-01  1.1546128488320D+00  5.0859680498621D-01
    62  6.1000000000000D-01  1.1519426559232D+00  5.0206409744410D-01
    63  6.2000000000000D-01  1.1489567189972D+00  4.9400145645084D-01
    64  6.3000000000000D-01  1.1456309643516D+00  4.8451971306453D-01
    65  6.4000000000000D-01  1.1419373133378D+00  4.7374243823224D-01
    66  6.5000000000000D-01  1.1378439357683D+00  4.6180515029511D-01
    67  6.6000000000000D-01  1.1333155368841D+00  4.4885443031567D-01
    68  6.7000000000000D-01  1.1283136759444D+00  4.3504695083469D-01
    69  6.8000000000000D-01  1.1227971142676D+00  4.2054842428511D-01
    70  6.9000000000000D-01  1.1167221903459D+00  4.0553247786590D-01
    71  7.0000000000000D-01  1.1100432194555D+00  3.9017946221145D-01
    72  7.1000000000000D-01  1.1027129150030D+00  3.7467520167609D-01
    73  7.2000000000000D-01  1.0946828286918D+00  3.5920969448729D-01
    74  7.3000000000000D-01  1.0859038064454D+00  3.4397577139844D-01
    75  7.4000000000000D-01  1.0763264569049D+00  3.2916772179424D-01
    76  7.5000000000000D-01  1.0659016292182D+00  3.1497989646333D-01
    77  7.6000000000000D-01  1.0545808967580D+00  3.0160529645513D-01
    78  7.7000000000000D-01  1.0423170433505D+00  2.8923415757588D-01
    79  7.8000000000000D-01  1.0290645485637D+00  2.7805254015515D-01
    80  7.9000000000000D-01  1.0147800685929D+00  2.6824093372475D-01
    81  8.0000000000000D-01  9.9942290929396D-01  2.5997288620037D-01
    82  8.1000000000000D-01  9.8295548795308D-01  2.5341366703873D-01
    83  8.2000000000000D-01  9.6534378043662D-01  2.4871897366379D-01
    84  8.3000000000000D-01  9.4655775044991D-01  2.4603369021351D-01
    85  8.4000000000000D-01  9.2657175773495D-01  2.4549070735557D-01
    86  8.5000000000000D-01  9.0536494216280D-01  2.4720981155910D-01
    87  8.6000000000000D-01  8.8292158082162D-01  2.5129665179099D-01
    88  8.7000000000000D-01  8.5923141536635D-01  2.5784179113360D-01
    89  8.8000000000000D-01  8.3428994708009D-01  2.6691985029655D-01
    90  8.9000000000000D-01  8.0809869729829D-01  2.7858874942479D-01
    91  9.0000000000000D-01  7.8066543106453D-01  2.9288905398979D-01
    92  9.1000000000000D-01  7.5200434211887D-01  3.0984342989461D-01
    93  9.2000000000000D-01  7.2213619756556D-01  3.2945621223268D-01
    94  9.3000000000000D-01  6.9108844082445D-01  3.5171309141564D-01
    95  9.4000000000000D-01  6.5889525173800D-01  3.7658091963572D-01
    96  9.5000000000000D-01  6.2559756298209D-01  4.0400763985428D-01
    97  9.6000000000000D-01  5.9124303221160D-01  4.3392233871784D-01
    98  9.7000000000000D-01  5.5588596965882D-01  4.6623542400180D-01
    99  9.8000000000000D-01  5.1958722119779D-01  5.0083892635909D-01
   100  9.9000000000000D-01  4.8241400716981D-01  5.3760692436704D-01
   101  1.0000000000000D+00  4.4443971756857D-01  5.7639609102191D-01
   102  1.0100000000000D+00  4.0574366446460D-01  6.1704635905065D-01
   103  1.0200000000000D+00  3.6641079283541D-01  6.5938170161536D-01
   104  1.0300000000000D+00  3.2653135124504D-01  7.0321102421816D-01
   105  1.0400000000000D+00  2.8620052409027D-01  7.4832916285921D-01
   106  1.0500000000000D+00  2.4551802738542D-01  7.9451798279791D-01
   107  1.0600000000000D+00  2.0458767030697D-01  8.4154757158206D-01
   108  1.0700000000000D+00  1.6351688496301D-01  8.8917751933951D-01
   109  1.0800000000000D+00  1.2241622706298D-01  9.3715827875114D-01
   110  1.0900000000000D+00  8.1398850377267D-02  9.8523259653923D-01
   111  1.1000000000000D+00  4.0579958052803D-02  1.0331370078242D+00
   112  1.1100000000000D+00  7.6234025340495D-05  1.0806033842301D+00
   113  1.1200000000000D+00 -3.9994742077882D-02  1.1273605262065D+00
   114  1.1300000000000D+00 -7.9515093031994D-02  1.1731357897150D+00
   115  1.1400000000000D+00 -1.1836725148396D-01  1.2176567371440D+00
   116  1.1500000000000D+00 -1.5643457309756D-01  1.2606528021076D+00
   117  1.1600000000000D+00 -1.9360195160199D-01  1.3018569576020D+00
   118  1.1700000000000D+00 -2.2975643195129D-01  1.3410073769504D+00
   119  1.1800000000000D+00 -2.6478781778812D-01  1.3778490769428D+00
   120  1.1900000000000D+00 -2.9858926940556D-01  1.4121355325946D+00
   121  1.2000000000000D+00 -3.3105788844914D-01  1.4436302531007D+00
   122  1.2100000000000D+00 -3.6209528568462D-01  1.4721083088105D+00
   123  1.2200000000000D+00 -3.9160812818007D-01  1.4973577991225D+00
   124  1.2300000000000D+00 -4.1950866242227D-01  1.5191812517006D+00
   125  1.2400000000000D+00 -4.4571521002080D-01  1.5373969437964D+00
   126  1.2500000000000D+00 -4.7015263274520D-01  1.5518401367308D+00
   127  1.2600000000000D+00 -4.9275276385695D-01  1.5623642152086D+00
   128  1.2700000000000D+00 -5.1345480295578D-01  1.5688417238776D+00
   129  1.2800000000000D+00 -5.3220567165347D-01  1.5711652938055D+00
   130  1.2900000000000D+00 -5.4896032766313D-01  1.5692484523385D+00
   131  1.3000000000000D+00 -5.6368203528520D-01  1.5630263109096D+00
   132  1.3100000000000D+00 -5.7634259028466D-01  1.5524561254111D+00
   133  1.3200000000000D+00 -5.8692249756944D-01  1.5375177249149D+00
   134  1.3300000000000D+00 -5.9541110054962D-01  1.5182138058499D+00
   135  1.3400000000000D+00 -6.0180666089295D-01  1.4945700882822D+00
   136  1.3500000000000D+00 -6.0611638814124D-01  1.4666353330564D+00
   137  1.3600000000000D+00 -6.0835641895375D-01  1.4344812193929D+00
   138  1.3700000000000D+00 -6.0855174548033D-01  1.3982020818068D+00
   139  1.3800000000000D+00 -6.0673609360896D-01  1.3579145086907D+00
   140  1.3900000000000D+00 -6.0295175140395D-01  1.3137568036994D+00
   141  1.4000000000000D+00 -5.9724934851881D-01  1.2658883123931D+00
   142  1.4100000000000D+00 -5.8968758825709D-01  1.2144886190643D+00
   143  1.4200000000000D+00 -5.8033293314309D-01  1.1597566164233D+00
   144  1.4300000000000D+00 -5.6925924638850D-01  1.1019094550546D+00
   145  1.4400000000000D+00 -5.5654739109689D-01  1.0411813780422D+00
   146  1.4500000000000D+00 -5.4228478941580D-01  9.7782244718903D-01
   147  1.4600000000000D+00 -5.2656494481810D-01  9.1209716993944D-01
   148  1.4700000000000D+00 -5.0948692959496D-01  8.4428303308156D-01
   149  1.4800000000000D+00 -4.9115484145651D-01  7.7466895430742D-01
   150  1.4900000000000D+00 -4.7167723194737D-01  7.0355365942934D-01
   151  1.5000000000000D+00 -4.5116651046760D-01  6.3124399603997D-01
   152  1.5100000000000D+00 -4.2973832750013D-01  5.5805319385530D-01
   153  1.5200000000000D+00 -4.0751094066218D-01  4.8429908206425D-01
   154  1.5300000000000D+00 -3.8460456774934D-01  4.1030227543855D-01
   155  1.5400000000000D+00 -3.6114073042603D-01  3.3638433964569D-01
   156  1.5500000000000D+00 -3.3724159285166D-01  2.6286594779977D-01
   157  1.5600000000000D+00 -3.1302929912873D-01  1.9006503931765D-01
   158  1.5700000000000D+00 -2.8862531370223D-01  1.1829499265780D-01
   159  1.5800000000000D+00 -2.6414976868833D-01  4.7862823200422D-02
   160  1.5900000000000D+00 -2.3972082217858D-01 -2.0932582375476D-02
   161  1.6000000000000D+00 -2.1545403120110D-01 -8.7802184866990D-02
   162  1.6100000000000D+00 -1.9146174348863D-01 -1.5246845281362D-01
   163  1.6200000000000D+00 -1.6785251102612D-01 -2.1466695596755D-01
   164  1.6300000000000D+00 -1.4473052980566D-01 -2.7414787951504D-01
   165  1.6400000000000D+00 -1.2219510768811D-01 -3.3067745384337D-01
   166  1.6500000000000D+00 -1.0034016519567D-01 -3.8403928628064D-01
   167  1.6600000000000D+00 -7.9253769784216D-02 -4.3403559345406D-01
   168  1.6700000000000D+00 -5.9017708851077D-02 -4.8048831948312D-01
   169  1.6800000000000D+00 -3.9707100516194D-02 -5.2324014294265D-01
   170  1.6900000000000D+00 -2.1390047795061D-02 -5.6215535680418D-01
   171  1.7000000000000D+00 -4.1273336712913D-03 -5.9712062861916D-01
   172  1.7100000000000D+00  1.2027837141403D-02 -6.2804562469177D-01
   173  1.7200000000000D+00  2.7030053625087D-02 -6.5486350941197D-01
   174  1.7300000000000D+00  4.0841865440197D-02 -6.7753130397198D-01
   175  1.7400000000000D+00  5.3433906400877D-02 -6.9603011861257D-01
   176  1.7500000000000D+00  6.4784969448177D-02 -7.1036524444803D-01
   177  1.7600000000000D+00  7.4882038604129D-02 -7.2056612054118D-01
   178  1.7700000000000D+00  8.3720274161757D-02 -7.2668616583225D-01
   179  1.7800000000000D+00  9.1302956470795D-02 -7.2880249122550D-01
   180  1.7900000000000D+00  9.7641386522274D-02 -7.2701548695478D-01
   181  1.8000000000000D+00  1.0275474781920D-01 -7.2144829805519D-01
   182  1.8100000000000D+00  1.0666993035364D-01 -7.1224619045182D-01
   183  1.8200000000000D+00  1.0942131962739D-01 -6.9957581611917D-01
   184  1.8300000000000D+00  1.1105055460534D-01 -6.8362438846086D-01
   185  1.8400000000000D+00  1.1160625560886D-01 -6.6459877094334D-01
   186  1.8500000000000D+00  1.1114372949449D-01 -6.4272449993877D-01
   187  1.8600000000000D+00  1.0972465978746D-01 -6.1824476593919D-01
   188  1.8700000000000D+00  1.0741672447621D-01 -5.9141917354395D-01
   189  1.8800000000000D+00  1.0429340587931D-01 -5.6252309436416D-01
   190  1.8900000000000D+00  1.0043326087948D-01 -5.3184537314507D-01
   191  1.9000000000000D+00  9.5919815957968D-02 -4.9968792238046D-01
   192  1.9100000000000D+00  9.0841792072404D-02 -4.6636638088863D-01
   193  1.9200000000000D+00  8.5292040291425D-02 -4.3220676717990D-01
   194  1.9300000000000D+00  7.9365720997107D-02 -3.9753976529846D-01
   195  1.9400000000000D+00  7.3158831476928D-02 -3.6269613408577D-01
   196  1.9500000000000D+00  6.6766694387649D-02 -3.2800220571799D-01
   197  1.9600000000000D+00  6.0281347497922D-02 -2.9377192349955D-01
   198  1.9700000000000D+00  5.3791720439815D-02 -2.6030754732470D-01
   199  1.9800000000000D+00  4.7383136151916D-02 -2.2789831953665D-01
   200  1.9900000000000D+00  4.1136593138030D-02 -1.9681839743440D-01
   201  2.0000000000000D+00  3.5128090744487D-02 -1.6732491142204D-01
   202  2.0100000000000D+00  2.9428157578449D-02 -1.3965666104441D-01
   203  2.0200000000000D+00  2.4101301172360D-02 -1.1403254905018D-01
   204  2.0300000000000D+00  1.9205544306506D-02 -9.0650278407349D-02
   205  2.0400000000000D+00  1.4794382568471D-02 -6.9696435634719D-02
   206  2.0500000000000D+00  1.0908606962649D-02 -5.1308462910031D-02
   207  2.0600000000000D+00  7.5774615882732D-03 -3.5580987507958D-02
   208  2.0700000000000D+00  4.8190952452093D-03 -2.2570180360891D-02
   209  2.0800000000000D+00  2.7047112412334D-03 -1.2588116032998D-02
   210  2.0900000000000D+00  1.2729318144822D-03 -5.8034936510232D-03
   211  2.1000000000000D+00  4.4889432594762D-04 -1.8859378647665D-03
   212  2.1100000000000D+00  7.0488279692908D-05 -1.1142012691485D-04
   213  2.1200000000000D+00 -4.1826633633311D-05  3.3433457146911D-04
   214  2.1300000000000D+00 -2.1438487582126D-05  1.3804738082537D-04
   215  2.1400000000000D+00  1.4467728794236D-05 -8.7929022705333D-05
   216  2.1500000000000D+00  1.8469441545878D-05 -1.0869272512391D-04
   217  2.1600000000000D+00  6.3739345675197D-09 -3.6854093180421D-08
   218  2.1700000000000D+00 -3.1557029016674D-06  2.0295459055617D-05
   219  2.1800000000000D+00 -2.1068512599832D-06  1.3283818699166D-05
   220  2.1900000000000D+00 -1.3827769102520D-07  3.1294307619826D-07
   221  2.2000000000000D+00 -2.5645338014992D-07  5.8039231846105D-07
   222  2.2100000000000D+00 -6.2790494319631D-08  1.4210427078084D-07
   223  2.2200000000000D+00  0.0000000000000D+00  0.0000000000000D+00
   224  2.2300000000000D+00  0.0000000000000D+00  0.0000000000000D+00
   225  2.2400000000000D+00  0.0000000000000D+00  0.0000000000000D+00
   226  2.2500000000000D+00  0.0000000000000D+00  0.0000000000000D+00
   227  2.2600000000000D+00  0.0000000000000D+00  0.0000000000000D+00
   228  2.2700000000000D+00  0.0000000000000D+00  0.0000000000000D+00
   229  2.2800000000000D+00  0.0000000000000D+00  0.0000000000000D+00
   230  2.2900000000000D+00  0.0000000000000D+00  0.0000000000000D+00
   231  2.3000000000000D+00  0.0000000000000D+00  0.0000000000000D+00
   232  2.3100000000000D+00  0.0000000000000D+00  0.0000000000000D+00
   233  2.3200000000000D+00  0.0000000000000D+00  0.0000000000000D+00
   234  2.3300000000000D+00  0.0000000000000D+00  0.0000000000000D+00
   235  2.3400000000000D+00  0.0000000000000D+00  0.0000000000000D+00
   236  2.3500000000000D+00  0.0000000000000D+00  0.0000000000000D+00
   237  2.3600000000000D+00  0.0000000000000D+00  0.0000000000000D+00
   238  2.3700000000000D+00  0.0000000000000D+00  0.0000000000000D+00
   239  2.3800000000000D+00  0.0000000000000D+00  0.0000000000000D+00
   240  2.3900000000000D+00  0.0000000000000D+00  0.0000000000000D+00
   241  2.4000000000000D+00  0.0000000000000D+00  0.0000000000000D+00
   242  2.4100000000000D+00  0.0000000000000D+00  0.0000000000000D+00
   243  2.4200000000000D+00  0.0000000000000D+00  0.0000000000000D+00
   244  2.4300000000000D+00  0.0000000000000D+00  0.0000000000000D+00
   245  2.4400000000000D+00  0.0000000000000D+00  0.0000000000000D+00
   246  2.4500000000000D+00  0.0000000000000D+00  0.0000000000000D+00
   247  2.4600000000000D+00  0.0000000000000D+00  0.0000000000000D+00
   248  2.4700000000000D+00  0.0000000000000D+00  0.0000000000000D+00
   249  2.4800000000000D+00  0.0000000000000D+00  0.0000000000000D+00
   250  2.4900000000000D+00  0.0000000000000D+00  0.0000000000000D+00
   251  2.5000000000000D+00  0.0000000000000D+00  0.0000000000000D+00
   252  2.5100000000000D+00  0.0000000000000D+00  0.0000000000000D+00
   253  2.5200000000000D+00  0.0000000000000D+00  0.0000000000000D+00
   254  2.5300000000000D+00  0.0000000000000D+00  0.0000000000000D+00
   255  2.5400000000000D+00  0.0000000000000D+00  0.0000000000000D+00
   256  2.5500000000000D+00  0.0000000000000D+00  0.0000000000000D+00
   257  2.5600000000000D+00  0.0000000000000D+00  0.0000000000000D+00
   258  2.5700000000000D+00  0.0000000000000D+00  0.0000000000000D+00
   259  2.5800000000000D+00  0.0000000000000D+00  0.0000000000000D+00
   260  2.5900000000000D+00  0.0000000000000D+00  0.0000000000000D+00
   261  2.6000000000000D+00  0.0000000000000D+00  0.0000000000000D+00
   262  2.6100000000000D+00  0.0000000000000D+00  0.0000000000000D+00
   263  2.6200000000000D+00  0.0000000000000D+00  0.0000000000000D+00
   264  2.6300000000000D+00  0.0000000000000D+00  0.0000000000000D+00
   265  2.6400000000000D+00  0.0000000000000D+00  0.0000000000000D+00
   266  2.6500000000000D+00  0.0000000000000D+00  0.0000000000000D+00
   267  2.6600000000000D+00  0.0000000000000D+00  0.0000000000000D+00
   268  2.6700000000000D+00  0.0000000000000D+00  0.0000000000000D+00
   269  2.6800000000000D+00  0.0000000000000D+00  0.0000000000000D+00
   270  2.6900000000000D+00  0.0000000000000D+00  0.0000000000000D+00
   271  2.7000000000000D+00  0.0000000000000D+00  0.0000000000000D+00
   272  2.7100000000000D+00  0.0000000000000D+00  0.0000000000000D+00
   273  2.7200000000000D+00  0.0000000000000D+00  0.0000000000000D+00
   274  2.7300000000000D+00  0.0000000000000D+00  0.0000000000000D+00
   275  2.7400000000000D+00  0.0000000000000D+00  0.0000000000000D+00
   276  2.7500000000000D+00  0.0000000000000D+00  0.0000000000000D+00
   277  2.7600000000000D+00  0.0000000000000D+00  0.0000000000000D+00
   278  2.7700000000000D+00  0.0000000000000D+00  0.0000000000000D+00
   279  2.7800000000000D+00  0.0000000000000D+00  0.0000000000000D+00
   280  2.7900000000000D+00  0.0000000000000D+00  0.0000000000000D+00
   281  2.8000000000000D+00  0.0000000000000D+00  0.0000000000000D+00
   282  2.8100000000000D+00  0.0000000000000D+00  0.0000000000000D+00
   283  2.8200000000000D+00  0.0000000000000D+00  0.0000000000000D+00
   284  2.8300000000000D+00  0.0000000000000D+00  0.0000000000000D+00
   285  2.8400000000000D+00  0.0000000000000D+00  0.0000000000000D+00
   286  2.8500000000000D+00  0.0000000000000D+00  0.0000000000000D+00
   287  2.8600000000000D+00  0.0000000000000D+00  0.0000000000000D+00
   288  2.8700000000000D+00  0.0000000000000D+00  0.0000000000000D+00
   289  2.8800000000000D+00  0.0000000000000D+00  0.0000000000000D+00
   290  2.8900000000000D+00  0.0000000000000D+00  0.0000000000000D+00
   291  2.9000000000000D+00  0.0000000000000D+00  0.0000000000000D+00
   292  2.9100000000000D+00  0.0000000000000D+00  0.0000000000000D+00
   293  2.9200000000000D+00  0.0000000000000D+00  0.0000000000000D+00
   294  2.9300000000000D+00  0.0000000000000D+00  0.0000000000000D+00
   295  2.9400000000000D+00  0.0000000000000D+00  0.0000000000000D+00
   296  2.9500000000000D+00  0.0000000000000D+00  0.0000000000000D+00
   297  2.9600000000000D+00  0.0000000000000D+00  0.0000000000000D+00
   298  2.9700000000000D+00  0.0000000000000D+00  0.0000000000000D+00
   299  2.9800000000000D+00  0.0000000000000D+00  0.0000000000000D+00
   300  2.9900000000000D+00  0.0000000000000D+00  0.0000000000000D+00
   301  3.0000000000000D+00  0.0000000000000D+00  0.0000000000000D+00
   302  3.0100000000000D+00  0.0000000000000D+00  0.0000000000000D+00
   303  3.0200000000000D+00  0.0000000000000D+00  0.0000000000000D+00
   304  3.0300000000000D+00  0.0000000000000D+00  0.0000000000000D+00
   305  3.0400000000000D+00  0.0000000000000D+00  0.0000000000000D+00
   306  3.0500000000000D+00  0.0000000000000D+00  0.0000000000000D+00
   307  3.0600000000000D+00  0.0000000000000D+00  0.0000000000000D+00
   308  3.0700000000000D+00  0.0000000000000D+00  0.0000000000000D+00
   309  3.0800000000000D+00  0.0000000000000D+00  0.0000000000000D+00
   310  3.0900000000000D+00  0.0000000000000D+00  0.0000000000000D+00
   311  3.1000000000000D+00  0.0000000000000D+00  0.0000000000000D+00
   312  3.1100000000000D+00  0.0000000000000D+00  0.0000000000000D+00
   313  3.1200000000000D+00  0.0000000000000D+00  0.0000000000000D+00
   314  3.1300000000000D+00  0.0000000000000D+00  0.0000000000000D+00
   315  3.1400000000000D+00  0.0000000000000D+00  0.0000000000000D+00
   316  3.1500000000000D+00  0.0000000000000D+00  0.0000000000000D+00
   317  3.1600000000000D+00  0.0000000000000D+00  0.0000000000000D+00
   318  3.1700000000000D+00  0.0000000000000D+00  0.0000000000000D+00
   319  3.1800000000000D+00  0.0000000000000D+00  0.0000000000000D+00
   320  3.1900000000000D+00  0.0000000000000D+00  0.0000000000000D+00
   321  3.2000000000000D+00  0.0000000000000D+00  0.0000000000000D+00
   322  3.2100000000000D+00  0.0000000000000D+00  0.0000000000000D+00
   323  3.2200000000000D+00  0.0000000000000D+00  0.0000000000000D+00
   324  3.2300000000000D+00  0.0000000000000D+00  0.0000000000000D+00
   325  3.2400000000000D+00  0.0000000000000D+00  0.0000000000000D+00
   326  3.2500000000000D+00  0.0000000000000D+00  0.0000000000000D+00
   327  3.2600000000000D+00  0.0000000000000D+00  0.0000000000000D+00
   328  3.2700000000000D+00  0.0000000000000D+00  0.0000000000000D+00
   329  3.2800000000000D+00  0.0000000000000D+00  0.0000000000000D+00
   330  3.2900000000000D+00  0.0000000000000D+00  0.0000000000000D+00
   331  3.3000000000000D+00  0.0000000000000D+00  0.0000000000000D+00
   332  3.3100000000000D+00  0.0000000000000D+00  0.0000000000000D+00
   333  3.3200000000000D+00  0.0000000000000D+00  0.0000000000000D+00
   334  3.3300000000000D+00  0.0000000000000D+00  0.0000000000000D+00
   335  3.3400000000000D+00  0.0000000000000D+00  0.0000000000000D+00
   336  3.3500000000000D+00  0.0000000000000D+00  0.0000000000000D+00
   337  3.3600000000000D+00  0.0000000000000D+00  0.0000000000000D+00
   338  3.3700000000000D+00  0.0000000000000D+00  0.0000000000000D+00
   339  3.3800000000000D+00  0.0000000000000D+00  0.0000000000000D+00
   340  3.3900000000000D+00  0.0000000000000D+00  0.0000000000000D+00
   341  3.4000000000000D+00  0.0000000000000D+00  0.0000000000000D+00
   342  3.4100000000000D+00  0.0000000000000D+00  0.0000000000000D+00
   343  3.4200000000000D+00  0.0000000000000D+00  0.0000000000000D+00
   344  3.4300000000000D+00  0.0000000000000D+00  0.0000000000000D+00
   345  3.4400000000000D+00  0.0000000000000D+00  0.0000000000000D+00
   346  3.4500000000000D+00  0.0000000000000D+00  0.0000000000000D+00
   347  3.4600000000000D+00  0.0000000000000D+00  0.0000000000000D+00
   348  3.4700000000000D+00  0.0000000000000D+00  0.0000000000000D+00
   349  3.4800000000000D+00  0.0000000000000D+00  0.0000000000000D+00
   350  3.4900000000000D+00  0.0000000000000D+00  0.0000000000000D+00
   351  3.5000000000000D+00  0.0000000000000D+00  0.0000000000000D+00
   352  3.5100000000000D+00  0.0000000000000D+00  0.0000000000000D+00
   353  3.5200000000000D+00  0.0000000000000D+00  0.0000000000000D+00
   354  3.5300000000000D+00  0.0000000000000D+00  0.0000000000000D+00
   355  3.5400000000000D+00  0.0000000000000D+00  0.0000000000000D+00
   356  3.5500000000000D+00  0.0000000000000D+00  0.0000000000000D+00
   357  3.5600000000000D+00  0.0000000000000D+00  0.0000000000000D+00
   358  3.5700000000000D+00  0.0000000000000D+00  0.0000000000000D+00
   359  3.5800000000000D+00  0.0000000000000D+00  0.0000000000000D+00
   360  3.5900000000000D+00  0.0000000000000D+00  0.0000000000000D+00
   361  3.6000000000000D+00  0.0000000000000D+00  0.0000000000000D+00
   362  3.6100000000000D+00  0.0000000000000D+00  0.0000000000000D+00
   363  3.6200000000000D+00  0.0000000000000D+00  0.0000000000000D+00
   364  3.6300000000000D+00  0.0000000000000D+00  0.0000000000000D+00
   365  3.6400000000000D+00  0.0000000000000D+00  0.0000000000000D+00
   366  3.6500000000000D+00  0.0000000000000D+00  0.0000000000000D+00
   367  3.6600000000000D+00  0.0000000000000D+00  0.0000000000000D+00
   368  3.6700000000000D+00  0.0000000000000D+00  0.0000000000000D+00
   369  3.6800000000000D+00  0.0000000000000D+00  0.0000000000000D+00
   370  3.6900000000000D+00  0.0000000000000D+00  0.0000000000000D+00
   371  3.7000000000000D+00  0.0000000000000D+00  0.0000000000000D+00
   372  3.7100000000000D+00  0.0000000000000D+00  0.0000000000000D+00
   373  3.7200000000000D+00  0.0000000000000D+00  0.0000000000000D+00
   374  3.7300000000000D+00  0.0000000000000D+00  0.0000000000000D+00
   375  3.7400000000000D+00  0.0000000000000D+00  0.0000000000000D+00
   376  3.7500000000000D+00  0.0000000000000D+00  0.0000000000000D+00
   377  3.7600000000000D+00  0.0000000000000D+00  0.0000000000000D+00
   378  3.7700000000000D+00  0.0000000000000D+00  0.0000000000000D+00
   379  3.7800000000000D+00  0.0000000000000D+00  0.0000000000000D+00
   380  3.7900000000000D+00  0.0000000000000D+00  0.0000000000000D+00
   381  3.8000000000000D+00  0.0000000000000D+00  0.0000000000000D+00
   382  3.8100000000000D+00  0.0000000000000D+00  0.0000000000000D+00
   383  3.8200000000000D+00  0.0000000000000D+00  0.0000000000000D+00
   384  3.8300000000000D+00  0.0000000000000D+00  0.0000000000000D+00
   385  3.8400000000000D+00  0.0000000000000D+00  0.0000000000000D+00
   386  3.8500000000000D+00  0.0000000000000D+00  0.0000000000000D+00
   387  3.8600000000000D+00  0.0000000000000D+00  0.0000000000000D+00
   388  3.8700000000000D+00  0.0000000000000D+00  0.0000000000000D+00
   389  3.8800000000000D+00  0.0000000000000D+00  0.0000000000000D+00
   390  3.8900000000000D+00  0.0000000000000D+00  0.0000000000000D+00
   391  3.9000000000000D+00  0.0000000000000D+00  0.0000000000000D+00
   392  3.9100000000000D+00  0.0000000000000D+00  0.0000000000000D+00
   393  3.9200000000000D+00  0.0000000000000D+00  0.0000000000000D+00
   394  3.9300000000000D+00  0.0000000000000D+00  0.0000000000000D+00
   395  3.9400000000000D+00  0.0000000000000D+00  0.0000000000000D+00
   396  3.9500000000000D+00  0.0000000000000D+00  0.0000000000000D+00
   397  3.9600000000000D+00  0.0000000000000D+00  0.0000000000000D+00
   398  3.9700000000000D+00  0.0000000000000D+00  0.0000000000000D+00
   399  3.9800000000000D+00  0.0000000000000D+00  0.0000000000000D+00
   400  3.9900000000000D+00  0.0000000000000D+00  0.0000000000000D+00
   401  4.0000000000000D+00  0.0000000000000D+00  0.0000000000000D+00
   402  4.0100000000000D+00  0.0000000000000D+00  0.0000000000000D+00
   403  4.0200000000000D+00  0.0000000000000D+00  0.0000000000000D+00
   404  4.0300000000000D+00  0.0000000000000D+00  0.0000000000000D+00
   405  4.0400000000000D+00  0.0000000000000D+00  0.0000000000000D+00
   406  4.0500000000000D+00  0.0000000000000D+00  0.0000000000000D+00
   407  4.0600000000000D+00  0.0000000000000D+00  0.0000000000000D+00
   408  4.0700000000000D+00  0.0000000000000D+00  0.0000000000000D+00
   409  4.0800000000000D+00  0.0000000000000D+00  0.0000000000000D+00
   410  4.0900000000000D+00  0.0000000000000D+00  0.0000000000000D+00
   411  4.1000000000000D+00  0.0000000000000D+00  0.0000000000000D+00
   412  4.1100000000000D+00  0.0000000000000D+00  0.0000000000000D+00
   413  4.1200000000000D+00  0.0000000000000D+00  0.0000000000000D+00
   414  4.1300000000000D+00  0.0000000000000D+00  0.0000000000000D+00
   415  4.1400000000000D+00  0.0000000000000D+00  0.0000000000000D+00
   416  4.1500000000000D+00  0.0000000000000D+00  0.0000000000000D+00
   417  4.1600000000000D+00  0.0000000000000D+00  0.0000000000000D+00
   418  4.1700000000000D+00  0.0000000000000D+00  0.0000000000000D+00
   419  4.1800000000000D+00  0.0000000000000D+00  0.0000000000000D+00
   420  4.1900000000000D+00  0.0000000000000D+00  0.0000000000000D+00
   421  4.2000000000000D+00  0.0000000000000D+00  0.0000000000000D+00
   422  4.2100000000000D+00  0.0000000000000D+00  0.0000000000000D+00
   423  4.2200000000000D+00  0.0000000000000D+00  0.0000000000000D+00